96
# CELL(abcABC):    9.86592     9.86592     9.86592    90.00000    90.00000    90.00000  Step:       13410  Bead:       0 positions{angstrom}  cell{angstrom}
       O  1.55832e+00 -2.26429e+00  8.62103e-01
       H  1.22310e+00 -2.99005e+00  1.41496e+00
       H  1.65198e+00 -2.46450e+00 -2.15876e-02
       O -1.52979e+00 -8.44161e-01 -4.73165e+00
       H -5.87860e-01 -6.71884e-01 -4.71535e+00
       H -1.98245e+00  2.31071e-02 -4.58040e+00
       O -4.95803e+00 -3.04960e+00  3.11648e+00
       H -5.47765e+00 -3.80835e+00  2.82072e+00
       H -4.05387e+00 -3.35125e+00  2.98623e+00
       O -3.10767e+00  3.70760e+00  2.98892e-01
       H -3.78403e+00  3.72931e+00 -3.30975e-01
       H -2.38365e+00  3.90812e+00 -2.59314e-01
       O -2.61979e+00 -3.86916e+00  1.96568e+00
       H -2.17952e+00 -3.20578e+00  1.38307e+00
       H -2.83538e+00 -4.58775e+00  1.40998e+00
       O  1.68390e+00  6.22013e+00  5.22258e+00
       H  1.14801e+00  5.57138e+00  5.65789e+00
       H  2.18873e+00  5.67823e+00  4.58690e+00
       O  2.06654e-01  2.75020e+00 -5.98487e+00
       H  6.68502e-01  3.45925e+00 -6.45115e+00
       H -7.03146e-01  3.00063e+00 -6.00532e+00
       O -5.92569e+00  3.85687e+00 -3.50584e+00
       H -5.13268e+00  4.30419e+00 -3.31040e+00
       H -6.47950e+00  4.07988e+00 -2.67429e+00
       O -3.72716e+00  2.23858e+00  2.66990e+00
       H -3.32055e+00  2.82155e+00  2.01555e+00
       H -2.98714e+00  1.62031e+00  2.69427e+00
       O -2.37792e+00  3.38258e+00 -5.17633e+00
       H -2.81339e+00  3.96780e+00 -4.53936e+00
       H -3.08768e+00  3.07874e+00 -5.81762e+00
       O  4.96756e+00 -3.35089e+00  9.14663e+00
       H  5.19491e+00 -2.61095e+00  8.52384e+00
       H  5.54566e+00 -3.13427e+00  9.95625e+00
       O -3.60179e+00 -4.76655e+00  6.72616e+00
       H -2.78593e+00 -5.00946e+00  7.16164e+00
       H -3.63116e+00 -3.77557e+00  6.79433e+00
       O  1.74994e-01 -4.45581e+00  2.17830e+00
       H -7.61253e-01 -4.47100e+00  1.95763e+00
       H  5.79540e-01 -5.09829e+00  1.60599e+00
       O  3.46964e+00  4.31661e+00  3.84081e+00
       H  3.83306e+00  4.05621e+00  4.69927e+00
       H  3.73997e+00  3.50870e+00  3.41658e+00
       O  8.19043e+00  8.33450e-01 -1.18578e+00
       H  7.57125e+00  7.53062e-01 -1.87054e+00
       H  7.80792e+00  1.31630e+00 -5.50927e-01
       O  2.12635e+00  3.54893e+00  8.34358e-01
       H  2.56391e+00  2.92550e+00  1.40808e+00
       H  1.77408e+00  3.01719e+00  9.64441e-02
       O -1.29101e+00  4.93904e+00 -1.54844e+00
       H -5.95194e-01  4.57297e+00 -2.04484e+00
       H -1.20052e+00  5.95727e+00 -1.61349e+00
       O  4.27987e+00  1.30416e+00  6.05043e+00
       H  4.04338e+00  8.63728e-01  5.21305e+00
       H  4.06553e+00  2.23698e+00  5.92179e+00
       O  2.76032e+00  1.64861e-01 -1.76830e+00
       H  3.29755e+00  5.47078e-01 -2.41897e+00
       H  3.31168e+00 -1.13447e-01 -1.05555e+00
       O  4.05372e+00 -9.82266e-01  7.52568e-01
       H  3.34893e+00 -1.59119e+00  9.68869e-01
       H  4.78525e+00 -1.27094e+00  1.31390e+00
       O -1.26158e+00 -2.15706e+00  4.38682e-01
       H -3.16432e-01 -2.09790e+00  6.51577e-01
       H -1.26707e+00 -2.03105e+00 -4.82714e-01
       O  6.95424e-01  3.81645e+00 -3.26331e+00
       H  5.62791e-01  3.34480e+00 -4.11049e+00
       H  8.26953e-01  3.04487e+00 -2.68520e+00
       O  5.81466e+00 -2.08000e+00 -3.45044e+00
       H  5.05855e+00 -1.41324e+00 -3.63434e+00
       H  6.59006e+00 -1.82174e+00 -3.94739e+00
       O  3.41233e+00  1.59235e+00  2.37307e+00
       H  3.08377e+00  7.39715e-01  2.02324e+00
       H  4.33746e+00  1.61765e+00  2.28946e+00
       O  9.09391e-01  1.94647e+00 -1.09228e+00
       H  1.56155e+00  1.22735e+00 -1.39218e+00
       H  9.77593e-02  1.44162e+00 -1.06000e+00
       O  1.62651e+00 -2.21224e+00 -2.11047e+00
       H  1.92691e+00 -2.58023e+00 -2.95445e+00
       H  1.93956e+00 -1.31729e+00 -2.08918e+00
       O -1.10269e+00  7.72294e+00  7.48605e+00
       H -1.28667e-01  7.82120e+00  7.59710e+00
       H -1.26231e+00  8.05975e+00  6.59528e+00
       O  6.91304e+00  1.14416e+00 -3.81055e+00
       H  5.94205e+00  1.24177e+00 -3.72538e+00
       H  7.21916e+00  1.85502e+00 -4.31768e+00
       O  3.61233e+00 -1.21942e+00  4.94872e+00
       H  4.13833e+00 -1.86174e+00  4.48511e+00
       H  2.87717e+00 -1.82851e+00  5.17780e+00
       O  1.09054e+00  1.34819e-01  4.79858e+00
       H  1.91359e+00 -1.52117e-01  4.47919e+00
       H  9.89307e-01  1.00958e+00  4.46523e+00
       O  4.32995e+00  3.95658e+00 -7.90329e-01
       H  4.46677e+00  4.90508e+00 -9.63880e-01
       H  3.70900e+00  3.93735e+00 -1.04546e-01
       O  7.55216e+00 -1.57769e-01  2.67783e+00
       H  7.92487e+00 -5.36461e-01  3.46667e+00
       H  7.69671e+00 -8.39038e-01  1.99579e+00
