96
# CELL(abcABC):   23.95199    23.95199    23.95199    90.00000    90.00000    90.00000  Step:      200000  Bead:       0 positions{angstrom}  cell{atomic_unit}
       O -4.71774e+00 -9.25634e+00 -4.18738e+00
       H -5.08319e+00 -8.53960e+00 -4.74751e+00
       H -5.18924e+00 -9.97786e+00 -4.56507e+00
       O -5.00273e+00 -1.70538e+00  5.78744e-01
       H -4.75069e+00 -1.25068e+00  1.41198e+00
       H -5.06564e+00 -1.05746e+00 -1.40287e-01
       O -6.41876e+00 -3.32460e+00  1.16025e+01
       H -5.94473e+00 -2.85964e+00  1.22609e+01
       H -6.99496e+00 -2.68311e+00  1.12068e+01
       O  5.28449e+00  1.41741e+00 -2.27324e+00
       H  4.49045e+00  1.47652e+00 -2.91808e+00
       H  6.02361e+00  1.16572e+00 -2.79152e+00
       O  7.75980e-02 -1.34573e+01  1.14062e+01
       H  5.43890e-02 -1.37822e+01  1.22405e+01
       H -4.69716e-01 -1.26366e+01  1.14221e+01
       O -1.07074e+01 -3.91687e+00  1.08388e+01
       H -9.82193e+00 -3.58777e+00  1.08452e+01
       H -1.11397e+01 -3.48041e+00  1.16069e+01
       O  9.06613e+00 -4.91877e+00  7.37809e+00
       H  9.85690e+00 -5.34657e+00  7.79698e+00
       H  8.46217e+00 -4.83161e+00  8.14441e+00
       O -4.46808e+00 -7.53584e-01  3.18329e+00
       H -4.01191e+00 -1.37009e+00  3.69739e+00
       H -5.21765e+00 -4.17098e-01  3.65085e+00
       O -1.90504e+01 -1.33960e+00  6.20222e+00
       H -1.82207e+01 -1.81841e+00  6.42282e+00
       H -1.96232e+01 -1.85993e+00  5.70125e+00
       O -1.06207e+01 -4.92505e+00 -1.91347e+01
       H -1.15221e+01 -5.04493e+00 -1.92982e+01
       H -1.01917e+01 -5.24827e+00 -1.99069e+01
       O -2.78535e+00  5.11077e+00  1.10742e+01
       H -3.74742e+00  4.98645e+00  1.09852e+01
       H -2.63124e+00  6.06402e+00  1.09901e+01
       O  1.20617e+01  1.06667e+01 -5.39726e+00
       H  1.29594e+01  1.09296e+01 -5.34771e+00
       H  1.17765e+01  1.02952e+01 -4.57612e+00
       O -2.97237e+00  9.35476e+00  8.14868e-01
       H -3.71389e+00  9.98143e+00  5.89685e-01
       H -3.25051e+00  9.03166e+00  1.63571e+00
       O -1.63630e+00 -2.63906e+00  9.93355e+00
       H -2.05875e+00 -3.38124e+00  1.03608e+01
       H -9.29265e-01 -2.16691e+00  1.04592e+01
       O  1.17968e+01 -1.78226e+00  1.83875e+00
       H  1.11708e+01 -2.46611e+00  1.56144e+00
       H  1.15212e+01 -1.44915e+00  2.68883e+00
       O -3.09793e+00 -2.67318e-01 -3.40299e+00
       H -2.64878e+00 -1.04551e+00 -3.20763e+00
       H -2.29967e+00  2.82574e-01 -3.34255e+00
       O -1.32586e+00  6.37324e+00 -5.01411e+00
       H -1.40013e+00  5.48560e+00 -4.66787e+00
       H -5.44033e-01  6.83601e+00 -4.59200e+00
       O  2.23598e+01  9.12209e+00  4.29612e+00
       H  2.21207e+01  9.59012e+00  5.10679e+00
       H  2.31265e+01  8.56329e+00  4.61178e+00
       O -5.15377e+00 -5.01690e+00 -2.73121e+00
       H -5.68746e+00 -4.39927e+00 -2.15458e+00
       H -5.21671e+00 -5.90794e+00 -2.33252e+00
       O  2.23008e+01  1.55657e+01 -1.32104e-01
       H  2.23273e+01  1.59018e+01  7.73747e-01
       H  2.26412e+01  1.62946e+01 -6.19840e-01
       O -1.54002e+01 -1.73254e+01 -1.49552e+00
       H -1.62736e+01 -1.73452e+01 -1.84286e+00
       H -1.54587e+01 -1.67587e+01 -6.89485e-01
       O  7.49621e+00  5.36750e+00  6.52052e+00
       H  6.80036e+00  5.62741e+00  5.89939e+00
       H  8.14934e+00  6.10911e+00  6.58631e+00
       O  7.67854e+00  3.76173e-03 -1.41074e+01
       H  8.23913e+00  4.30197e-02 -1.48530e+01
       H  7.77133e+00  8.18723e-01 -1.36767e+01
       O  5.83258e+00  3.17624e+00 -2.30603e-01
       H  5.81268e+00  2.63824e+00 -1.00694e+00
       H  5.87253e+00  2.64850e+00  5.51376e-01
       O -5.79883e+00  8.08051e-01 -4.60132e+00
       H -4.87351e+00  4.85247e-01 -4.39824e+00
       H -6.10024e+00  2.06817e-01 -5.25659e+00
       O  1.12813e+01  1.42756e+01 -2.15568e+00
       H  1.07846e+01  1.46595e+01 -1.44185e+00
       H  1.13074e+01  1.50627e+01 -2.72387e+00
       O -1.98249e+00  1.64909e+01 -4.07748e+00
       H -2.73139e+00  1.60246e+01 -4.41585e+00
       H -2.24814e+00  1.69214e+01 -3.23682e+00
       O  1.18550e+01 -4.30254e+00  1.84179e+01
       H  1.15148e+01 -4.97852e+00  1.89048e+01
       H  1.19252e+01 -3.53274e+00  1.89955e+01
       O -5.48834e+00 -7.64686e+00 -1.45228e+01
       H -5.41802e+00 -8.19503e+00 -1.53035e+01
       H -5.78158e+00 -8.20834e+00 -1.38331e+01
       O  1.72694e+01  1.13109e+01  1.04076e+01
       H  1.77601e+01  1.21425e+01  1.04387e+01
       H  1.72023e+01  1.12499e+01  9.45885e+00
       O  6.60640e-01  7.85067e+00 -4.08102e+00
       H  1.04557e+00  8.32927e+00 -3.35820e+00
       H  1.34575e+00  7.80325e+00 -4.73928e+00
       O  9.12254e+00 -2.08852e+00  6.77738e+00
       H  9.86024e+00 -1.62241e+00  7.19249e+00
       H  9.25330e+00 -3.01130e+00  7.07792e+00
